# vtk DataFile Version 4.2
written by meshio v1.11.7
ASCII
DATASET UNSTRUCTURED_GRID
POINTS 142 double
0.0 0.0 0.0 1.0 0.0 0.0 1.0 1.0 0.0 0.0 1.0 0.0 0.09999999999981467 0.0 0.0 0.1999999999995579 0.0 0.0 0.2999999999992664 0.0 0.0 0.3999999999989749 0.0 0.0 0.4999999999986943 0.0 0.0 0.5999999999989468 0.0 0.0 0.69999999999921 0.0 0.0 0.7999999999994734 0.0 0.0 0.8999999999997368 0.0 0.0 1.0 0.09999999999981467 0.0 1.0 0.1999999999995579 0.0 1.0 0.2999999999992664 0.0 1.0 0.3999999999989749 0.0 1.0 0.4999999999986943 0.0 1.0 0.5999999999989468 0.0 1.0 0.69999999999921 0.0 1.0 0.7999999999994734 0.0 1.0 0.8999999999997368 0.0 0.8999999999995836 1.0 0.0 0.7999999999999998 1.0 0.0 0.7000000000006934 1.0 0.0 0.6000000000013869 1.0 0.0 0.5000000000020587 1.0 0.0 0.4000000000016644 1.0 0.0 0.3000000000012483 1.0 0.0 0.2000000000008322 1.0 0.0 0.100000000000416 1.0 0.0 0.0 0.8999999999995836 0.0 0.0 0.7999999999999998 0.0 0.0 0.7000000000006934 0.0 0.0 0.6000000000013869 0.0 0.0 0.5000000000020587 0.0 0.0 0.4000000000016644 0.0 0.0 0.3000000000012483 0.0 0.0 0.2000000000008322 0.0 0.0 0.100000000000416 0.0 0.4996424112651422 0.4990084251288624 0.0 0.7058324194911869 0.7047919149719664 0.0 0.292857142857163 0.7071428571428829 0.0 0.7018330541042099 0.297253168832577 0.0 0.2928571428571166 0.2928571428571638 0.0 0.4969996804011801 0.7848800793697628 0.0 0.2142764653336874 0.4959320601568044 0.0 0.7897344872354451 0.5072989616185585 0.0 0.5072777916612748 0.2102075138201075 0.0 0.8287274430627282 0.8292696835394592 0.0 0.1706446170362347 0.8289332904167301 0.0 0.8292696835394403 0.1712725569372551 0.0 0.1710779033544231 0.1706508757787672 0.0 0.6407012853651173 0.8514953479562629 0.0 0.1511339309161314 0.640710112639334 0.0 0.3601074644199832 0.8476053416279329 0.0 0.8476563970718409 0.6398179055107026 0.0 0.8514953479563026 0.3592987146348884 0.0 0.1524351120518861 0.3601300831747989 0.0 0.359298714634872 0.1485046520437003 0.0 0.6398179055106878 0.1523436029281569 0.0 0.5659170522858292 0.6428569276543471 0.0 0.3639360530549316 0.5720108710844389 0.0 0.6453012456119056 0.4472896794791522 0.0 0.4339941539909128 0.3487684972789015 0.0 0.428888924583087 0.6576059551975852 0.0 0.6661733647266972 0.5586987495249733 0.0 0.3538464894152624 0.4298646161091652 0.0 0.5465417583682728 0.3415093346446944 0.0 0.4597655717997758 0.8907018265128541 0.0 0.1096758859274591 0.4604652914507329 0.0 0.8917395429051465 0.5415375772016792 0.0 0.5409923209725503 0.1086904000281056 0.0 0.7390736031440465 0.9023348642130153 0.0 0.09766513578698902 0.7390736031440744 0.0 0.9023348642130203 0.2609263968558969 0.0 0.260926396855869 0.09766513578698408 0.0 0.9025186546976761 0.7361942682452522 0.0 0.2637403976586792 0.9025126991778292 0.0 0.7361988990235249 0.09747726601433057 0.0 0.09750166302675517 0.2636995659897579 0.0 0.6041206249238611 0.7452829717179744 0.0 0.2557747851481023 0.6077464983172404 0.0 0.7470323336476541 0.398230544357113 0.0 0.3952650993753347 0.2532059513493896 0.0 0.3933773534387436 0.7451067775956902 0.0 0.7479871520222275 0.6047802326584006 0.0 0.2550265688561433 0.3937129537679202 0.0 0.602504763981922 0.2542045765953159 0.0 0.9001218934945729 0.9001218934945733 0.0 0.09987810650541903 0.9001218934945807 0.0 0.9001218934945625 0.09987810650543673 0.0 0.09987810650542893 0.09987810650542965 0.0 0.5673079921330465 0.9191576641714883 0.0 0.08231809211323894 0.5683106786134648 0.0 0.9196224275252105 0.4331043085050241 0.0 0.4329801081830565 0.08049726837514928 0.0 0.7934193151139743 0.7193532169245964 0.0 0.2799102797981724 0.7931824650499011 0.0 0.7194478171426867 0.2065442018254678 0.0 0.2068507609679902 0.2799642208244405 0.0 0.7277938243381868 0.8012652966217981 0.0 0.1987347033782311 0.7277938243383418 0.0 0.7988845039930034 0.2747558692274867 0.0 0.2722061756616174 0.1987347033782355 0.0 0.4819833408605308 0.5872774077960037 0.0 0.5811615809508304 0.5435646720922627 0.0 0.4096773265454885 0.491135371445602 0.0 0.5593229087634977 0.4308226427403208 0.0 0.6502321034884501 0.6400172180368688 0.0 0.3538586779068587 0.6543708124739787 0.0 0.6369618673838036 0.3574088828837966 0.0 0.3467996917702012 0.351820750109503 0.0 0.6494165761288583 0.9345975752681532 0.0 0.06622343176327188 0.6496188788797908 0.0 0.9346905279389066 0.3506658839988101 0.0 0.3506410439344078 0.06533341124116675 0.0 0.9278116756683015 0.6441268396013982 0.0 0.6441268396013893 0.07218832433169742 0.0 0.3558731603988964 0.927811675668362 0.0 0.07218832433163684 0.3558731603989055 0.0 0.8201017201097204 0.9200285942774967 0.0 0.07997140572249425 0.8201017201097339 0.0 0.9200285942774354 0.1798982798902575 0.0 0.1798982798902443 0.07997140572255566 0.0 0.9200285942777351 0.8201017201098527 0.0 0.8201017201098352 0.07997140572227604 0.0 0.1798982798901033 0.9200285942778361 0.0 0.07997140572217544 0.1798982798901216 0.0 0.5033565963967113 0.6968792237116647 0.0 0.304526003665244 0.5049416599946558 0.0 0.7122390165456542 0.4954154029833465 0.0 0.4952375753422132 0.2872737923209753 0.0 0.5539645195010826 0.8381512352916595 0.0 0.1668753040725713 0.5590697887074861 0.0 0.839809146350908 0.4471236751970983 0.0 0.4469485695588395 0.1604551469379231 0.0 0.4275625175149207 0.81707350627656 0.0 0.182853508042294 0.4275600971375642 0.0 0.8192047158416769 0.5732871651678859 0.0 0.5729203423422274 0.1810961155067523 0.0 0.461024257085337 0.4325419913433259 0.0
CELLS 282 1088
2 0 4
2 4 5
2 5 6
2 6 7
2 7 8
2 8 9
2 9 10
2 10 11
2 11 12
2 12 1
2 1 13
2 13 14
2 14 15
2 15 16
2 16 17
2 17 18
2 18 19
2 19 20
2 20 21
2 21 2
2 2 22
2 22 23
2 23 24
2 24 25
2 25 26
2 26 27
2 27 28
2 28 29
2 29 30
2 30 3
2 3 31
2 31 32
2 32 33
2 33 34
2 34 35
2 35 36
2 36 37
2 37 38
2 38 39
2 39 0
3 141 68 108
3 1 13 91
3 0 4 92
3 2 22 89
3 3 31 90
3 1 91 12
3 0 92 39
3 2 89 21
3 3 90 30
3 64 68 141
3 65 129 85
3 66 131 86
3 67 130 87
3 68 132 88
3 62 107 105
3 62 105 65
3 63 106 108
3 63 66 106
3 129 45 85
3 130 46 87
3 131 47 86
3 132 48 88
3 54 82 102
3 53 81 101
3 59 84 104
3 57 83 103
3 42 102 82
3 41 101 81
3 44 104 84
3 43 103 83
3 56 97 86
3 55 98 85
3 60 99 88
3 58 100 87
3 64 141 67
3 26 27 69
3 35 36 70
3 17 18 71
3 8 9 72
3 18 117 71
3 9 118 72
3 27 119 69
3 36 120 70
3 63 131 66
3 64 132 68
3 41 86 97
3 42 85 98
3 43 88 99
3 44 87 100
3 62 65 110
3 64 67 112
3 67 141 107
3 40 105 107
3 40 108 106
3 56 71 117
3 60 72 118
3 55 69 119
3 58 70 120
3 23 24 73
3 32 33 74
3 14 15 75
3 5 6 76
3 19 20 77
3 10 11 79
3 28 29 78
3 37 38 80
3 26 69 93
3 35 70 94
3 17 71 95
3 8 72 96
3 56 77 97
3 55 78 98
3 60 79 99
3 58 80 100
3 45 133 69
3 46 134 70
3 47 135 71
3 48 136 72
3 61 109 81
3 62 110 82
3 63 111 83
3 64 112 84
3 49 73 101
3 50 74 102
3 51 75 103
3 52 76 104
3 41 81 109
3 42 82 110
3 43 83 111
3 44 84 112
3 61 106 109
3 66 109 106
3 63 108 111
3 68 111 108
3 25 26 93
3 34 35 94
3 16 17 95
3 7 8 96
3 45 137 85
3 47 139 86
3 46 138 87
3 48 140 88
3 23 73 121
3 32 74 122
3 14 75 123
3 5 76 124
3 20 125 77
3 11 126 79
3 29 127 78
3 38 128 80
3 54 102 74
3 53 101 73
3 59 104 76
3 57 103 75
3 49 97 77
3 50 98 78
3 51 99 79
3 52 100 80
3 13 14 123
3 22 23 121
3 4 5 124
3 31 32 122
3 20 21 125
3 11 12 126
3 29 30 127
3 38 39 128
3 69 133 93
3 70 134 94
3 71 135 95
3 72 136 96
3 13 123 91
3 4 124 92
3 22 121 89
3 31 122 90
3 21 89 125
3 12 91 126
3 30 90 127
3 39 92 128
3 49 101 97
3 50 102 98
3 51 103 99
3 52 104 100
3 61 81 129
3 62 82 130
3 63 83 131
3 64 84 132
3 45 69 137
3 46 70 138
3 55 137 69
3 58 138 70
3 47 71 139
3 48 72 140
3 56 139 71
3 60 140 72
3 24 113 73
3 33 114 74
3 55 119 78
3 53 73 113
3 54 74 114
3 56 117 77
3 58 120 80
3 60 118 79
3 28 78 119
3 19 77 117
3 37 80 120
3 10 79 118
3 15 115 75
3 6 116 76
3 57 75 115
3 59 76 116
3 45 129 81
3 46 130 82
3 47 131 83
3 48 132 84
3 61 129 105
3 65 105 129
3 62 130 107
3 67 107 130
3 49 121 73
3 50 122 74
3 49 77 125
3 51 123 75
3 50 78 127
3 52 124 76
3 51 79 126
3 52 80 128
3 53 133 81
3 45 81 133
3 54 134 82
3 46 82 134
3 47 83 135
3 57 135 83
3 59 136 84
3 48 84 136
3 65 85 110
3 42 110 85
3 66 86 109
3 41 109 86
3 67 87 112
3 68 88 111
3 44 112 87
3 43 111 88
3 41 97 101
3 42 98 102
3 43 99 103
3 44 100 104
3 49 89 121
3 50 90 122
3 49 125 89
3 50 127 90
3 51 91 123
3 51 126 91
3 52 92 124
3 52 128 92
3 40 106 105
3 61 105 106
3 25 93 113
3 34 94 114
3 53 113 93
3 54 114 94
3 16 95 115
3 7 96 116
3 57 115 95
3 59 116 96
3 24 25 113
3 33 34 114
3 15 16 115
3 6 7 116
3 18 19 117
3 9 10 118
3 27 28 119
3 36 37 120
3 55 85 137
3 56 86 139
3 58 87 138
3 60 88 140
3 53 93 133
3 54 94 134
3 57 95 135
3 59 96 136
3 40 141 108
3 40 107 141
CELL_TYPES 282
3
3
3
3
3
3
3
3
3
3
3
3
3
3
3
3
3
3
3
3
3
3
3
3
3
3
3
3
3
3
3
3
3
3
3
3
3
3
3
3
5
5
5
5
5
5
5
5
5
5
5
5
5
5
5
5
5
5
5
5
5
5
5
5
5
5
5
5
5
5
5
5
5
5
5
5
5
5
5
5
5
5
5
5
5
5
5
5
5
5
5
5
5
5
5
5
5
5
5
5
5
5
5
5
5
5
5
5
5
5
5
5
5
5
5
5
5
5
5
5
5
5
5
5
5
5
5
5
5
5
5
5
5
5
5
5
5
5
5
5
5
5
5
5
5
5
5
5
5
5
5
5
5
5
5
5
5
5
5
5
5
5
5
5
5
5
5
5
5
5
5
5
5
5
5
5
5
5
5
5
5
5
5
5
5
5
5
5
5
5
5
5
5
5
5
5
5
5
5
5
5
5
5
5
5
5
5
5
5
5
5
5
5
5
5
5
5
5
5
5
5
5
5
5
5
5
5
5
5
5
5
5
5
5
5
5
5
5
5
5
5
5
5
5
5
5
5
5
5
5
5
5
5
5
5
5
5
5
5
5
5
5
5
5
5
5
5
5
5
5
5
5
5
5
5
5
5
5
5
5
5
5
CELL_DATA 282
FIELD FieldData 2
gmsh:physical 1 282 long
2 2 2 2 2 2 2 2 2 2 3 3 3 3 3 3 3 3 3 3 4 4 4 4 4 4 4 4 4 4 5 5 5 5 5 5 5 5 5 5 1 1 1 1 1 1 1 1 1 1 1 1 1 1 1 1 1 1 1 1 1 1 1 1 1 1 1 1 1 1 1 1 1 1 1 1 1 1 1 1 1 1 1 1 1 1 1 1 1 1 1 1 1 1 1 1 1 1 1 1 1 1 1 1 1 1 1 1 1 1 1 1 1 1 1 1 1 1 1 1 1 1 1 1 1 1 1 1 1 1 1 1 1 1 1 1 1 1 1 1 1 1 1 1 1 1 1 1 1 1 1 1 1 1 1 1 1 1 1 1 1 1 1 1 1 1 1 1 1 1 1 1 1 1 1 1 1 1 1 1 1 1 1 1 1 1 1 1 1 1 1 1 1 1 1 1 1 1 1 1 1 1 1 1 1 1 1 1 1 1 1 1 1 1 1 1 1 1 1 1 1 1 1 1 1 1 1 1 1 1 1 1 1 1 1 1 1 1 1 1 1 1 1 1 1 1 1 1 1 1 1 1 1 1 1 1 1 1 1 1 1 1 1 1 1 1 1 1 1 1 1 1 1 1 1 1 1 1 1 1 1 1
gmsh:geometrical 1 282 long
1 1 1 1 1 1 1 1 1 1 2 2 2 2 2 2 2 2 2 2 3 3 3 3 3 3 3 3 3 3 4 4 4 4 4 4 4 4 4 4 1 1 1 1 1 1 1 1 1 1 1 1 1 1 1 1 1 1 1 1 1 1 1 1 1 1 1 1 1 1 1 1 1 1 1 1 1 1 1 1 1 1 1 1 1 1 1 1 1 1 1 1 1 1 1 1 1 1 1 1 1 1 1 1 1 1 1 1 1 1 1 1 1 1 1 1 1 1 1 1 1 1 1 1 1 1 1 1 1 1 1 1 1 1 1 1 1 1 1 1 1 1 1 1 1 1 1 1 1 1 1 1 1 1 1 1 1 1 1 1 1 1 1 1 1 1 1 1 1 1 1 1 1 1 1 1 1 1 1 1 1 1 1 1 1 1 1 1 1 1 1 1 1 1 1 1 1 1 1 1 1 1 1 1 1 1 1 1 1 1 1 1 1 1 1 1 1 1 1 1 1 1 1 1 1 1 1 1 1 1 1 1 1 1 1 1 1 1 1 1 1 1 1 1 1 1 1 1 1 1 1 1 1 1 1 1 1 1 1 1 1 1 1 1 1 1 1 1 1 1 1 1 1 1 1 1 1 1 1 1 1 1
